<?xml version="1.0"?>
<VTKFile type="UnstructuredGrid" version="1.0" byte_order="LittleEndian">
  <UnstructuredGrid>
    <Piece NumberOfPoints="+45" NumberOfCells="+6">
      <Points>
        <DataArray type="Float32" NumberOfComponents="3" Name="Points" format="ascii">
           0.000000E+00  0.000000E+00  0.000000E+00+0.100000E+01  0.000000E+00  0.000000E+00+0.500000E+00 +0.870000E+00  0.000000E+00-0.500000E+00 +0.870000E+00  0.000000E+00-0.100000E+01  0.000000E+00  0.000000E+00-0.500000E+00 -0.860000E+00  0.000000E+00+0.500000E+00 -0.860000E+00  0.000000E+00 0.000000E+00  0.000000E+00 +0.100000E+01+0.100000E+01  0.000000E+00 +0.100000E+01+0.500000E+00 +0.870000E+00 +0.100000E+01-0.500000E+00 +0.870000E+00 +0.100000E+01-0.100000E+01  0.000000E+00 +0.100000E+01-0.500000E+00 -0.860000E+00 +0.100000E+01+0.500000E+00 -0.860000E+00 +0.100000E+01+0.500000E+00  0.000000E+00  0.000000E+00+0.250000E+00 +0.435000E+00  0.000000E+00-0.250000E+00 +0.435000E+00  0.000000E+00-0.500000E+00  0.000000E+00  0.000000E+00-0.250000E+00 -0.430000E+00  0.000000E+00+0.250000E+00 -0.430000E+00  0.000000E+00 0.000000E+00 +0.870000E+00  0.000000E+00-0.760000E+00 +0.430000E+00  0.000000E+00-0.760000E+00 -0.430000E+00  0.000000E+00 0.000000E+00 -0.870000E+00  0.000000E+00+0.760000E+00 -0.430000E+00  0.000000E+00+0.760000E+00 +0.430000E+00  0.000000E+00+0.500000E+00 +0.870000E+00 +0.500000E+00-0.500000E+00 +0.870000E+00 +0.500000E+00-0.100000E+01  0.000000E+00 +0.500000E+00-0.500000E+00 -0.860000E+00 +0.500000E+00+0.500000E+00 -0.860000E+00 +0.500000E+00+0.100000E+01  0.000000E+00 +0.500000E+00+0.760000E+00 +0.430000E+00 +0.100000E+01 0.000000E+00 +0.870000E+00 +0.100000E+01-0.760000E+00 +0.430000E+00 +0.100000E+01-0.760000E+00 -0.430000E+00 +0.100000E+01 0.000000E+00 -0.870000E+00 +0.100000E+01+0.760000E+00 -0.430000E+00 +0.100000E+01+0.500000E+00  0.000000E+00 +0.100000E+01+0.250000E+00 +0.435000E+00 +0.100000E+01-0.250000E+00 +0.435000E+00 +0.100000E+01-0.500000E+00  0.000000E+00 +0.100000E+01-0.250000E+00 -0.430000E+00 +0.100000E+01+0.250000E+00 -0.430000E+00 +0.100000E+01 0.000000E+00  0.000000E+00 +0.500000E+00
        </DataArray>
      </Points>
      <Cells>
        <DataArray type="Int32" NumberOfComponents="1" Name="connectivity" format="ascii">
          +0          +1          +2          +7          +8          +9          +14         +25         +15         +38         +32         +39         +44         +31         +26         +0          +2          +3          +7          +9          +10         +15         +20         +16         +39         +33         +40         +44         +26         +27         +0          +3          +4          +7          +10         +11         +16         +21         +17         +40         +34         +41         +44         +27         +28         +0          +4          +5          +7          +11         +12         +17         +22         +18         +41         +35         +42         +44         +28         +29         +0          +5          +6          +7          +12         +13         +18         +23         +19         +42         +36         +43         +44         +29         +30         +0          +6          +1          +7          +13         +8          +19         +24         +14         +43         +37         +38         +44         +30         +31         
        </DataArray>
        <DataArray type="Int32" NumberOfComponents="1" Name="offsets" format="ascii">
          +15         +30         +45         +60         +75         +90         
        </DataArray>
        <DataArray type="Int8" NumberOfComponents="1" Name="types" format="ascii">
          +26  +26  +26  +26  +26  +26  
        </DataArray>
      </Cells>
      <PointData>
        <DataArray type="Float64" NumberOfComponents="1" Name="Temperature" format="ascii">
           0.000000000000000E+000  0.000000000000000E+000 +0.189199998974800E+000 +0.189199998974800E+000  0.000000000000000E+000 +0.184900000691414E+000 +0.184900000691414E+000  0.000000000000000E+000  0.000000000000000E+000 +0.189199998974800E+000 +0.189199998974800E+000  0.000000000000000E+000 +0.184900000691414E+000 +0.184900000691414E+000  0.000000000000000E+000 +0.118000004440546E-001 +0.118000004440546E-001  0.000000000000000E+000 +0.115999998524785E-001 +0.115999998524785E-001  0.000000000000000E+000 +0.106799997389317E+000 +0.106799997389317E+000  0.000000000000000E+000 +0.106799997389317E+000 +0.106799997389317E+000 +0.189199998974800E+000 +0.189199998974800E+000  0.000000000000000E+000 +0.184900000691414E+000 +0.184900000691414E+000  0.000000000000000E+000 +0.106799997389317E+000  0.000000000000000E+000 +0.106799997389317E+000 +0.106799997389317E+000  0.000000000000000E+000 +0.106799997389317E+000  0.000000000000000E+000 +0.118000004440546E-001 +0.118000004440546E-001  0.000000000000000E+000 +0.115999998524785E-001 +0.115999998524785E-001  0.000000000000000E+000 
        </DataArray>
        <DataArray type="Float64" NumberOfComponents="3" Name="Camp electrico real" format="ascii">
          +0.100000000000000E+001  0.000000000000000E+000 -0.100000000000000E+001+0.100000000000000E+001  0.000000000000000E+000 -0.100000000000000E+001-0.917800009250641E+000  0.000000000000000E+000 +0.917800009250641E+000-0.917800009250641E+000  0.000000000000000E+000 +0.917800009250641E+000+0.100000000000000E+001  0.000000000000000E+000 -0.100000000000000E+001-0.904799997806549E+000  0.000000000000000E+000 +0.904799997806549E+000-0.904799997806549E+000  0.000000000000000E+000 +0.904799997806549E+000+0.100000000000000E+001  0.000000000000000E+000 -0.100000000000000E+001+0.100000000000000E+001  0.000000000000000E+000 -0.100000000000000E+001-0.917800009250641E+000  0.000000000000000E+000 +0.917800009250641E+000-0.917800009250641E+000  0.000000000000000E+000 +0.917800009250641E+000+0.100000000000000E+001  0.000000000000000E+000 -0.100000000000000E+001-0.904799997806549E+000  0.000000000000000E+000 +0.904799997806549E+000-0.904799997806549E+000  0.000000000000000E+000 +0.904799997806549E+000+0.100000000000000E+001  0.000000000000000E+000 -0.100000000000000E+001+0.202800005674362E+000  0.000000000000000E+000 -0.202800005674362E+000+0.202800005674362E+000  0.000000000000000E+000 -0.202800005674362E+000+0.100000000000000E+001  0.000000000000000E+000 -0.100000000000000E+001+0.218099996447563E+000  0.000000000000000E+000 -0.218099996447563E+000+0.218099996447563E+000  0.000000000000000E+000 -0.218099996447563E+000-0.917800009250641E+000  0.000000000000000E+000 +0.917800009250641E+000+0.218099996447563E+000  0.000000000000000E+000 -0.218099996447563E+000+0.218099996447563E+000  0.000000000000000E+000 -0.218099996447563E+000-0.917800009250641E+000  0.000000000000000E+000 +0.917800009250641E+000+0.218099996447563E+000  0.000000000000000E+000 -0.218099996447563E+000+0.218099996447563E+000  0.000000000000000E+000 -0.218099996447563E+000-0.917800009250641E+000  0.000000000000000E+000 +0.917800009250641E+000-0.917800009250641E+000  0.000000000000000E+000 +0.917800009250641E+000+0.100000000000000E+001  0.000000000000000E+000 -0.100000000000000E+001-0.904799997806549E+000  0.000000000000000E+000 +0.904799997806549E+000-0.904799997806549E+000  0.000000000000000E+000 +0.904799997806549E+000+0.100000000000000E+001  0.000000000000000E+000 -0.100000000000000E+001+0.218099996447563E+000  0.000000000000000E+000 -0.218099996447563E+000-0.917800009250641E+000  0.000000000000000E+000 +0.917800009250641E+000+0.218099996447563E+000  0.000000000000000E+000 -0.218099996447563E+000+0.218099996447563E+000  0.000000000000000E+000 -0.218099996447563E+000-0.917800009250641E+000  0.000000000000000E+000 +0.917800009250641E+000+0.218099996447563E+000  0.000000000000000E+000 -0.218099996447563E+000+0.100000000000000E+001  0.000000000000000E+000 -0.100000000000000E+001+0.202800005674362E+000  0.000000000000000E+000 -0.202800005674362E+000+0.202800005674362E+000  0.000000000000000E+000 -0.202800005674362E+000+0.100000000000000E+001  0.000000000000000E+000 -0.100000000000000E+001+0.218099996447563E+000  0.000000000000000E+000 -0.218099996447563E+000+0.218099996447563E+000  0.000000000000000E+000 -0.218099996447563E+000+0.100000000000000E+001  0.000000000000000E+000 -0.100000000000000E+001
        </DataArray>
      </PointData>
    </Piece>
  </UnstructuredGrid>
</VTKFile>
