<?xml version="1.0"?>
<VTKFile type="UnstructuredGrid" version="1.0" byte_order="LittleEndian">
  <UnstructuredGrid>
    <Piece NumberOfPoints="+14" NumberOfCells="+6">
      <Points>
        <DataArray type="Float32" NumberOfComponents="3" Name="Points" format="ascii">
           0.000000E+00  0.000000E+00  0.000000E+00+0.100000E+01  0.000000E+00  0.000000E+00+0.500000E+00 +0.870000E+00  0.000000E+00-0.500000E+00 +0.870000E+00  0.000000E+00-0.100000E+01  0.000000E+00  0.000000E+00-0.500000E+00 -0.860000E+00  0.000000E+00+0.500000E+00 -0.860000E+00  0.000000E+00 0.000000E+00  0.000000E+00 +0.100000E+01+0.100000E+01  0.000000E+00 +0.100000E+01+0.500000E+00 +0.870000E+00 +0.100000E+01-0.500000E+00 +0.870000E+00 +0.100000E+01-0.100000E+01  0.000000E+00 +0.100000E+01-0.500000E+00 -0.860000E+00 +0.100000E+01+0.500000E+00 -0.860000E+00 +0.100000E+01
        </DataArray>
      </Points>
      <Cells>
        <DataArray type="Int32" NumberOfComponents="1" Name="connectivity" format="ascii">
          +0          +1          +2          +7          +8          +9          +0          +2          +3          +7          +9          +10         +0          +3          +4          +7          +10         +11         +0          +4          +5          +7          +11         +12         +0          +5          +6          +7          +12         +13         +0          +6          +1          +7          +13         +8          
        </DataArray>
        <DataArray type="Int32" NumberOfComponents="1" Name="offsets" format="ascii">
          +6          +12         +18         +24         +30         +36         
        </DataArray>
        <DataArray type="Int8" NumberOfComponents="1" Name="types" format="ascii">
          +13  +13  +13  +13  +13  +13  
        </DataArray>
      </Cells>
      <PointData>
        <DataArray type="Float64" NumberOfComponents="1" Name="Temperature" format="ascii">
           0.000000000000000E+000  0.000000000000000E+000 +0.189199998974800E+000 +0.189199998974800E+000  0.000000000000000E+000 +0.184900000691414E+000 +0.184900000691414E+000  0.000000000000000E+000  0.000000000000000E+000 +0.189199998974800E+000 +0.189199998974800E+000  0.000000000000000E+000 +0.184900000691414E+000 +0.184900000691414E+000 
        </DataArray>
        <DataArray type="Float64" NumberOfComponents="3" Name="Camp electrico real" format="ascii">
          +0.100000000000000E+001  0.000000000000000E+000 -0.100000000000000E+001+0.100000000000000E+001  0.000000000000000E+000 -0.100000000000000E+001-0.917800009250641E+000  0.000000000000000E+000 +0.917800009250641E+000-0.917800009250641E+000  0.000000000000000E+000 +0.917800009250641E+000+0.100000000000000E+001  0.000000000000000E+000 -0.100000000000000E+001-0.904799997806549E+000  0.000000000000000E+000 +0.904799997806549E+000-0.904799997806549E+000  0.000000000000000E+000 +0.904799997806549E+000+0.100000000000000E+001  0.000000000000000E+000 -0.100000000000000E+001+0.100000000000000E+001  0.000000000000000E+000 -0.100000000000000E+001-0.917800009250641E+000  0.000000000000000E+000 +0.917800009250641E+000-0.917800009250641E+000  0.000000000000000E+000 +0.917800009250641E+000+0.100000000000000E+001  0.000000000000000E+000 -0.100000000000000E+001-0.904799997806549E+000  0.000000000000000E+000 +0.904799997806549E+000-0.904799997806549E+000  0.000000000000000E+000 +0.904799997806549E+000
        </DataArray>
      </PointData>
    </Piece>
  </UnstructuredGrid>
</VTKFile>
