<?xml version="1.0"?>
<VTKFile type="UnstructuredGrid" version="1.0" byte_order="LittleEndian">
  <UnstructuredGrid>
    <Piece NumberOfPoints="+19" NumberOfCells="+15">
      <Points>
        <DataArray type="Float32" NumberOfComponents="3" Name="Points" format="ascii">
           0.000000E+00  0.000000E+00  0.000000E+00+0.100000E+01  0.000000E+00  0.000000E+00+0.500000E+00 +0.870000E+00  0.000000E+00-0.500000E+00 +0.870000E+00  0.000000E+00-0.100000E+01  0.000000E+00  0.000000E+00-0.500000E+00 -0.860000E+00  0.000000E+00+0.500000E+00 -0.860000E+00  0.000000E+00+0.760000E+00 +0.430000E+00  0.000000E+00 0.000000E+00 +0.870000E+00  0.000000E+00-0.760000E+00 +0.430000E+00  0.000000E+00-0.760000E+00 -0.430000E+00  0.000000E+00 0.000000E+00 -0.870000E+00  0.000000E+00+0.760000E+00 -0.430000E+00  0.000000E+00+0.500000E+00  0.000000E+00  0.000000E+00+0.250000E+00 +0.435000E+00  0.000000E+00-0.250000E+00 +0.435000E+00  0.000000E+00-0.500000E+00  0.000000E+00  0.000000E+00-0.250000E+00 -0.430000E+00  0.000000E+00+0.250000E+00 -0.430000E+00  0.000000E+00
        </DataArray>
      </Points>
      <Cells>
        <DataArray type="Int32" NumberOfComponents="1" Name="connectivity" format="ascii">
          +0          +1          +2          +13         +7          +14         +0          +2          +3          +14         +8          +15         +0          +3          +4          +15         +9          +16         +0          +4          +5          +16         +10         +17         +0          +5          +6          +17         +11         +18         +0          +6          +1          +18         +12         +13         +1          +7          +2          +2          +8          +3          +3          +9          +4          +4          +10         +5          +5          +11         +6          +6          +12         +1          +1          +13         +0          +16         +4          +3          +15         +0          +18         +6          +2          +14         +0          +17         +5          
        </DataArray>
        <DataArray type="Int32" NumberOfComponents="1" Name="offsets" format="ascii">
          +6          +12         +18         +24         +30         +36         +39         +42         +45         +48         +51         +54         +59         +64         +69         
        </DataArray>
        <DataArray type="Int8" NumberOfComponents="1" Name="types" format="ascii">
          +22  +22  +22  +22  +22  +22  +4   +4   +4   +4   +4   +4   +4   +4   +4   
        </DataArray>
      </Cells>
      <PointData>
        <DataArray type="Float64" NumberOfComponents="1" Name="Temperature" format="ascii">
           0.000000000000000E+000  0.000000000000000E+000 +0.189199998974800E+000 +0.189199998974800E+000  0.000000000000000E+000 +0.184900000691414E+000 +0.184900000691414E+000 +0.106799997389317E+000  0.000000000000000E+000 +0.106799997389317E+000 +0.106799997389317E+000  0.000000000000000E+000 +0.106799997389317E+000  0.000000000000000E+000 +0.118000004440546E-001 +0.118000004440546E-001  0.000000000000000E+000 +0.115999998524785E-001 +0.115999998524785E-001 
        </DataArray>
        <DataArray type="Float64" NumberOfComponents="3" Name="Camp electrico real" format="ascii">
          +0.100000000000000E+001  0.000000000000000E+000 -0.100000000000000E+001+0.100000000000000E+001  0.000000000000000E+000 -0.100000000000000E+001-0.917800009250641E+000  0.000000000000000E+000 +0.917800009250641E+000-0.917800009250641E+000  0.000000000000000E+000 +0.917800009250641E+000+0.100000000000000E+001  0.000000000000000E+000 -0.100000000000000E+001-0.904799997806549E+000  0.000000000000000E+000 +0.904799997806549E+000-0.904799997806549E+000  0.000000000000000E+000 +0.904799997806549E+000+0.218099996447563E+000  0.000000000000000E+000 -0.218099996447563E+000-0.917800009250641E+000  0.000000000000000E+000 +0.917800009250641E+000+0.218099996447563E+000  0.000000000000000E+000 -0.218099996447563E+000+0.218099996447563E+000  0.000000000000000E+000 -0.218099996447563E+000-0.917800009250641E+000  0.000000000000000E+000 +0.917800009250641E+000+0.218099996447563E+000  0.000000000000000E+000 -0.218099996447563E+000+0.100000000000000E+001  0.000000000000000E+000 -0.100000000000000E+001+0.202800005674362E+000  0.000000000000000E+000 -0.202800005674362E+000+0.202800005674362E+000  0.000000000000000E+000 -0.202800005674362E+000+0.100000000000000E+001  0.000000000000000E+000 -0.100000000000000E+001+0.218099996447563E+000  0.000000000000000E+000 -0.218099996447563E+000+0.218099996447563E+000  0.000000000000000E+000 -0.218099996447563E+000
        </DataArray>
      </PointData>
    </Piece>
  </UnstructuredGrid>
</VTKFile>
