<?xml version="1.0"?>
<VTKFile type="UnstructuredGrid" version="1.0" byte_order="LittleEndian">
  <UnstructuredGrid>
    <Piece NumberOfPoints="+9" NumberOfCells="+6">
      <Points>
        <DataArray type="Float32" NumberOfComponents="3" Name="Points" format="ascii">
           0.000000E+00  0.000000E+00  0.000000E+00+0.100000E+01  0.000000E+00  0.000000E+00+0.200000E+01  0.000000E+00  0.000000E+00 0.000000E+00 -0.100000E+01  0.000000E+00+0.100000E+01 -0.100000E+01  0.000000E+00+0.200000E+01 -0.100000E+01  0.000000E+00 0.000000E+00 -0.200000E+01  0.000000E+00+0.100000E+01 -0.200000E+01  0.000000E+00+0.200000E+01 -0.200000E+01  0.000000E+00
        </DataArray>
      </Points>
      <Cells>
        <DataArray type="Int32" NumberOfComponents="1" Name="connectivity" format="ascii">
          +0          +1          +2          +3          +4          +5          +6          +7          +8          +0          +3          +6          +1          +4          +7          +2          +5          +8          
        </DataArray>
        <DataArray type="Int32" NumberOfComponents="1" Name="offsets" format="ascii">
          +3          +6          +9          +12         +15         +18         
        </DataArray>
        <DataArray type="Int8" NumberOfComponents="1" Name="types" format="ascii">
          +4   +4   +4   +4   +4   +4   
        </DataArray>
      </Cells>
      <PointData>
        <DataArray type="Float64" NumberOfComponents="1" Name="Temperature" format="ascii">
           0.000000000000000E+000  0.000000000000000E+000  0.000000000000000E+000  0.000000000000000E+000 +0.100000000000000E+001 +0.400000000000000E+001  0.000000000000000E+000 +0.400000000000000E+001 +0.160000000000000E+002 
        </DataArray>
        <DataArray type="Float64" NumberOfComponents="3" Name="Camp electrico real" format="ascii">
          +0.100000000000000E+001  0.000000000000000E+000 -0.100000000000000E+001+0.100000000000000E+001  0.000000000000000E+000 -0.100000000000000E+001+0.100000000000000E+001  0.000000000000000E+000 -0.100000000000000E+001-0.100000000000000E+001  0.000000000000000E+000 +0.100000000000000E+001-0.100000000000000E+001  0.000000000000000E+000 +0.100000000000000E+001-0.100000000000000E+001  0.000000000000000E+000 +0.100000000000000E+001+0.100000000000000E+001  0.000000000000000E+000 -0.100000000000000E+001+0.100000000000000E+001  0.000000000000000E+000 -0.100000000000000E+001+0.100000000000000E+001  0.000000000000000E+000 -0.100000000000000E+001
        </DataArray>
      </PointData>
    </Piece>
  </UnstructuredGrid>
</VTKFile>
