<?xml version="1.0"?>
<VTKFile type="UnstructuredGrid" version="1.0" byte_order="LittleEndian">
  <UnstructuredGrid>
    <Piece NumberOfPoints="+8" NumberOfCells="+5">
      <Points>
        <DataArray type="Float32" NumberOfComponents="3" Name="Points" format="ascii">
           0.000000E+00  0.000000E+00  0.000000E+00 0.000000E+00 -0.100000E+01  0.000000E+00+0.100000E+01 -0.100000E+01  0.000000E+00+0.100000E+01  0.000000E+00  0.000000E+00 0.000000E+00  0.000000E+00 +0.100000E+01 0.000000E+00 -0.100000E+01 +0.100000E+01+0.100000E+01 -0.100000E+01 +0.100000E+01+0.100000E+01  0.000000E+00 +0.100000E+01
        </DataArray>
      </Points>
      <Cells>
        <DataArray type="Int32" NumberOfComponents="1" Name="connectivity" format="ascii">
          +0          +2          +5          +1          +0          +5          +7          +4          +0          +2          +7          +3          +2          +5          +7          +6          +0          +2          +7          +5          
        </DataArray>
        <DataArray type="Int32" NumberOfComponents="1" Name="offsets" format="ascii">
          +4          +8          +12         +16         +20         
        </DataArray>
        <DataArray type="Int8" NumberOfComponents="1" Name="types" format="ascii">
          +10  +10  +10  +10  +10  
        </DataArray>
      </Cells>
      <PointData>
        <DataArray type="Float64" NumberOfComponents="1" Name="Temperature" format="ascii">
           0.000000000000000E+000  0.000000000000000E+000 +0.100000000000000E+001  0.000000000000000E+000  0.000000000000000E+000  0.000000000000000E+000 +0.100000000000000E+001  0.000000000000000E+000 
        </DataArray>
        <DataArray type="Float64" NumberOfComponents="3" Name="Camp electrico real" format="ascii">
          +0.100000000000000E+001  0.000000000000000E+000 -0.100000000000000E+001-0.100000000000000E+001  0.000000000000000E+000 +0.100000000000000E+001-0.100000000000000E+001  0.000000000000000E+000 +0.100000000000000E+001+0.100000000000000E+001  0.000000000000000E+000 -0.100000000000000E+001+0.100000000000000E+001  0.000000000000000E+000 -0.100000000000000E+001-0.100000000000000E+001  0.000000000000000E+000 +0.100000000000000E+001-0.100000000000000E+001  0.000000000000000E+000 +0.100000000000000E+001+0.100000000000000E+001  0.000000000000000E+000 -0.100000000000000E+001
        </DataArray>
      </PointData>
    </Piece>
  </UnstructuredGrid>
</VTKFile>
