<?xml version="1.0"?>
<VTKFile type="UnstructuredGrid" version="1.0" byte_order="LittleEndian">
  <UnstructuredGrid>
    <Piece NumberOfPoints="+25" NumberOfCells="+10">
      <Points>
        <DataArray type="Float32" NumberOfComponents="3" Name="Points" format="ascii">
           0.000000E+00  0.000000E+00  0.000000E+00+0.100000E+01  0.000000E+00  0.000000E+00+0.200000E+01  0.000000E+00  0.000000E+00 0.000000E+00 -0.100000E+01  0.000000E+00+0.100000E+01 -0.100000E+01  0.000000E+00+0.200000E+01 -0.100000E+01  0.000000E+00 0.000000E+00 -0.200000E+01  0.000000E+00+0.100000E+01 -0.200000E+01  0.000000E+00+0.200000E+01 -0.200000E+01  0.000000E+00+0.500000E+00  0.000000E+00  0.000000E+00+0.150000E+01  0.000000E+00  0.000000E+00 0.000000E+00 -0.500000E+00  0.000000E+00+0.100000E+01 -0.500000E+00  0.000000E+00+0.200000E+01 -0.500000E+00  0.000000E+00+0.500000E+00 -0.100000E+01  0.000000E+00+0.150000E+01 -0.100000E+01  0.000000E+00 0.000000E+00 -0.150000E+01  0.000000E+00+0.100000E+01 -0.150000E+01  0.000000E+00+0.200000E+01 -0.150000E+01  0.000000E+00+0.500000E+00 -0.200000E+01  0.000000E+00+0.150000E+01 -0.200000E+01  0.000000E+00+0.500000E+00 -0.500000E+00  0.000000E+00+0.150000E+01 -0.500000E+00  0.000000E+00+0.500000E+00 -0.150000E+01  0.000000E+00+0.150000E+01 -0.150000E+01  0.000000E+00
        </DataArray>
      </Points>
      <Cells>
        <DataArray type="Int32" NumberOfComponents="1" Name="connectivity" format="ascii">
          +0          +1          +4          +3          +9          +12         +14         +11         +21         +1          +2          +5          +4          +10         +13         +15         +12         +22         +3          +4          +7          +6          +14         +17         +19         +16         +23         +4          +5          +8          +7          +15         +18         +20         +17         +24         +0          +9          +1          +10         +2          +3          +14         +4          +15         +5          +6          +19         +7          +20         +8          +0          +11         +3          +16         +6          +1          +12         +4          +17         +7          +8          +18         +5          +13         +2          
        </DataArray>
        <DataArray type="Int32" NumberOfComponents="1" Name="offsets" format="ascii">
          +9          +18         +27         +36         +41         +46         +51         +56         +61         +66         
        </DataArray>
        <DataArray type="Int8" NumberOfComponents="1" Name="types" format="ascii">
          +28  +28  +28  +28  +4   +4   +4   +4   +4   +4   
        </DataArray>
      </Cells>
      <PointData>
        <DataArray type="Float64" NumberOfComponents="1" Name="Temperature" format="ascii">
           0.000000000000000E+000  0.000000000000000E+000  0.000000000000000E+000  0.000000000000000E+000 +0.100000000000000E+001 +0.400000000000000E+001  0.000000000000000E+000 +0.400000000000000E+001 +0.160000000000000E+002  0.000000000000000E+000  0.000000000000000E+000  0.000000000000000E+000 +0.250000000000000E+000 +0.100000000000000E+001 +0.250000000000000E+000 +0.225000000000000E+001  0.000000000000000E+000 +0.225000000000000E+001 +0.900000000000000E+001 +0.100000000000000E+001 +0.900000000000000E+001 +0.625000000000000E-001 +0.562500000000000E+000 +0.562500000000000E+000 +0.506250000000000E+001 
        </DataArray>
        <DataArray type="Float64" NumberOfComponents="3" Name="Camp electrico real" format="ascii">
          +0.100000000000000E+001  0.000000000000000E+000 -0.100000000000000E+001+0.100000000000000E+001  0.000000000000000E+000 -0.100000000000000E+001+0.100000000000000E+001  0.000000000000000E+000 -0.100000000000000E+001-0.100000000000000E+001  0.000000000000000E+000 +0.100000000000000E+001-0.100000000000000E+001  0.000000000000000E+000 +0.100000000000000E+001-0.100000000000000E+001  0.000000000000000E+000 +0.100000000000000E+001+0.100000000000000E+001  0.000000000000000E+000 -0.100000000000000E+001+0.100000000000000E+001  0.000000000000000E+000 -0.100000000000000E+001+0.100000000000000E+001  0.000000000000000E+000 -0.100000000000000E+001+0.100000000000000E+001  0.000000000000000E+000 -0.100000000000000E+001+0.100000000000000E+001  0.000000000000000E+000 -0.100000000000000E+001 0.000000000000000E+000  0.000000000000000E+000  0.000000000000000E+000 0.000000000000000E+000  0.000000000000000E+000  0.000000000000000E+000 0.000000000000000E+000  0.000000000000000E+000  0.000000000000000E+000-0.100000000000000E+001  0.000000000000000E+000 +0.100000000000000E+001-0.100000000000000E+001  0.000000000000000E+000 +0.100000000000000E+001 0.000000000000000E+000  0.000000000000000E+000  0.000000000000000E+000 0.000000000000000E+000  0.000000000000000E+000  0.000000000000000E+000 0.000000000000000E+000  0.000000000000000E+000  0.000000000000000E+000+0.100000000000000E+001  0.000000000000000E+000 -0.100000000000000E+001+0.100000000000000E+001  0.000000000000000E+000 -0.100000000000000E+001 0.000000000000000E+000  0.000000000000000E+000  0.000000000000000E+000 0.000000000000000E+000  0.000000000000000E+000  0.000000000000000E+000 0.000000000000000E+000  0.000000000000000E+000  0.000000000000000E+000 0.000000000000000E+000  0.000000000000000E+000  0.000000000000000E+000
        </DataArray>
      </PointData>
    </Piece>
  </UnstructuredGrid>
</VTKFile>
