<?xml version="1.0"?>
<VTKFile type="UnstructuredGrid" version="1.0" byte_order="LittleEndian">
  <UnstructuredGrid>
    <Piece NumberOfPoints="+26" NumberOfCells="+5">
      <Points>
        <DataArray type="Float32" NumberOfComponents="3" Name="Points" format="ascii">
           0.000000E+00  0.000000E+00  0.000000E+00 0.000000E+00 -0.100000E+01  0.000000E+00+0.100000E+01 -0.100000E+01  0.000000E+00+0.100000E+01  0.000000E+00  0.000000E+00 0.000000E+00  0.000000E+00 +0.100000E+01 0.000000E+00 -0.100000E+01 +0.100000E+01+0.100000E+01 -0.100000E+01 +0.100000E+01+0.100000E+01  0.000000E+00 +0.100000E+01 0.000000E+00 -0.500000E+00  0.000000E+00+0.500000E+00 -0.100000E+01  0.000000E+00+0.100000E+01 -0.500000E+00  0.000000E+00+0.500000E+00  0.000000E+00  0.000000E+00+0.500000E+00 -0.500000E+00  0.000000E+00 0.000000E+00 -0.500000E+00 +0.500000E+00+0.500000E+00 -0.100000E+01 +0.500000E+00+0.100000E+01 -0.500000E+00 +0.500000E+00+0.500000E+00  0.000000E+00 +0.500000E+00 0.000000E+00 -0.100000E+01 +0.500000E+00+0.100000E+01 -0.100000E+01 +0.500000E+00+0.100000E+01  0.000000E+00 +0.500000E+00 0.000000E+00  0.000000E+00 +0.500000E+00 0.000000E+00 -0.500000E+00 +0.100000E+01+0.500000E+00 -0.100000E+01 +0.100000E+01+0.100000E+01 -0.500000E+00 +0.100000E+01+0.500000E+00  0.000000E+00 +0.100000E+01+0.500000E+00 -0.500000E+00 +0.100000E+01
        </DataArray>
      </Points>
      <Cells>
        <DataArray type="Int32" NumberOfComponents="1" Name="connectivity" format="ascii">
          +0          +2          +5          +1          +12         +14         +13         +8          +9          +17         +0          +5          +7          +4          +13         +25         +16         +20         +21         +24         +2          +0          +7          +3          +12         +16         +15         +10         +11         +19         +2          +0          +5          +7          +12         +13         +14         +15         +16         +25         +2          +7          +5          +6          +15         +25         +14         +18         +23         +22         
        </DataArray>
        <DataArray type="Int32" NumberOfComponents="1" Name="offsets" format="ascii">
          +10         +20         +30         +40         +50         
        </DataArray>
        <DataArray type="Int8" NumberOfComponents="1" Name="types" format="ascii">
          +24  +24  +24  +24  +24  
        </DataArray>
      </Cells>
      <PointData>
        <DataArray type="Float64" NumberOfComponents="1" Name="Temperature" format="ascii">
           0.000000000000000E+000  0.000000000000000E+000 +0.100000000000000E+001  0.000000000000000E+000  0.000000000000000E+000  0.000000000000000E+000 +0.100000000000000E+001  0.000000000000000E+000  0.000000000000000E+000 +0.250000000000000E+000 +0.250000000000000E+000  0.000000000000000E+000 +0.625000000000000E-001  0.000000000000000E+000 +0.250000000000000E+000 +0.250000000000000E+000  0.000000000000000E+000  0.000000000000000E+000 +0.100000000000000E+001  0.000000000000000E+000  0.000000000000000E+000  0.000000000000000E+000 +0.250000000000000E+000 +0.250000000000000E+000  0.000000000000000E+000 +0.625000000000000E-001 
        </DataArray>
        <DataArray type="Float64" NumberOfComponents="3" Name="Camp electrico real" format="ascii">
          +0.100000000000000E+001  0.000000000000000E+000 -0.100000000000000E+001-0.100000000000000E+001  0.000000000000000E+000 +0.100000000000000E+001-0.100000000000000E+001  0.000000000000000E+000 +0.100000000000000E+001+0.100000000000000E+001  0.000000000000000E+000 -0.100000000000000E+001+0.100000000000000E+001  0.000000000000000E+000 -0.100000000000000E+001-0.100000000000000E+001  0.000000000000000E+000 +0.100000000000000E+001-0.100000000000000E+001  0.000000000000000E+000 +0.100000000000000E+001+0.100000000000000E+001  0.000000000000000E+000 -0.100000000000000E+001 0.000000000000000E+000  0.000000000000000E+000  0.000000000000000E+000-0.100000000000000E+001  0.000000000000000E+000 +0.100000000000000E+001 0.000000000000000E+000  0.000000000000000E+000  0.000000000000000E+000+0.100000000000000E+001  0.000000000000000E+000 -0.100000000000000E+001 0.000000000000000E+000  0.000000000000000E+000  0.000000000000000E+000 0.000000000000000E+000  0.000000000000000E+000  0.000000000000000E+000-0.100000000000000E+001  0.000000000000000E+000 +0.100000000000000E+001 0.000000000000000E+000  0.000000000000000E+000  0.000000000000000E+000+0.100000000000000E+001  0.000000000000000E+000 -0.100000000000000E+001-0.100000000000000E+001  0.000000000000000E+000 +0.100000000000000E+001-0.100000000000000E+001  0.000000000000000E+000 +0.100000000000000E+001+0.100000000000000E+001  0.000000000000000E+000 -0.100000000000000E+001+0.100000000000000E+001  0.000000000000000E+000 -0.100000000000000E+001 0.000000000000000E+000  0.000000000000000E+000  0.000000000000000E+000-0.100000000000000E+001  0.000000000000000E+000 +0.100000000000000E+001 0.000000000000000E+000  0.000000000000000E+000  0.000000000000000E+000+0.100000000000000E+001  0.000000000000000E+000 -0.100000000000000E+001 0.000000000000000E+000  0.000000000000000E+000  0.000000000000000E+000
        </DataArray>
      </PointData>
    </Piece>
  </UnstructuredGrid>
</VTKFile>
